
Host: franklin

Timers On : Wed May 25 23:21:15 2022
Timers Off: Fri May 27 08:42:37 2022

Wall Time:   120081.90 seconds

                                                       Time (seconds)
Module                                       User      System        Wall        Calls

--------------------------------------------------------------------------------------

**************************************************************************************
