
Host: voltaire

Timers On : Mon May 30 15:45:50 2022
Timers Off: Mon May 30 18:55:28 2022

Wall Time:    11378.48 seconds

                                                       Time (seconds)
Module                                       User      System        Wall        Calls

--------------------------------------------------------------------------------------

**************************************************************************************

Host: kant

Timers On : Tue May 31 11:07:25 2022
Timers Off: Tue May 31 13:13:52 2022

Wall Time:     7586.96 seconds

                                                       Time (seconds)
Module                                       User      System        Wall        Calls

--------------------------------------------------------------------------------------

**************************************************************************************

Host: kant

Timers On : Tue May 31 16:03:58 2022
Timers Off: Tue May 31 16:03:59 2022

Wall Time:        0.59 seconds

                                                       Time (seconds)
Module                                       User      System        Wall        Calls

--------------------------------------------------------------------------------------

**************************************************************************************

Host: kant

Timers On : Tue May 31 16:08:43 2022
Timers Off: Tue May 31 16:08:46 2022

Wall Time:        3.16 seconds

                                                       Time (seconds)
Module                                       User      System        Wall        Calls

--------------------------------------------------------------------------------------

**************************************************************************************

Host: kant

Timers On : Tue May 31 23:53:58 2022
Timers Off: Wed Jun  1 05:17:34 2022

Wall Time:    19415.95 seconds

                                                       Time (seconds)
Module                                       User      System        Wall        Calls

--------------------------------------------------------------------------------------

**************************************************************************************

Host: kant

Timers On : Wed Jun  1 11:01:57 2022
Timers Off: Wed Jun  1 11:02:00 2022

Wall Time:        2.58 seconds

                                                       Time (seconds)
Module                                       User      System        Wall        Calls

--------------------------------------------------------------------------------------

**************************************************************************************

Host: kant

Timers On : Thu Jun  2 11:20:19 2022
Timers Off: Thu Jun  2 15:16:49 2022

Wall Time:    14189.86 seconds

                                                       Time (seconds)
Module                                       User      System        Wall        Calls

--------------------------------------------------------------------------------------

**************************************************************************************
